<?xml version="1.0" ?> 
<!-- 
# vtk DataFile Version 3.0
#This file was generated by the deal.II library on 17:30:42 at 2020/5/22
-->
<VTKFile type="UnstructuredGrid" version="0.1" compressor="vtkZLibDataCompressor" byte_order="LittleEndian">
<UnstructuredGrid>
<Piece NumberOfPoints="0" NumberOfCells="0" >
<Cells>
<DataArray type="UInt8" Name="types"></DataArray>
</Cells>
  <PointData Scalars="scalars">
    <DataArray type="Float32" Name="level"></DataArray>
    <DataArray type="Float32" Name="subdomain"></DataArray>
    <DataArray type="Float32" Name="level_subdomain"></DataArray>
    <DataArray type="Float32" Name="proc_writing"></DataArray>
  </PointData>
</Piece>
 </UnstructuredGrid>
</VTKFile>
